80
Lattice="  4.80716583   2.77539787   8.70721693  -4.80716583   2.77539787   8.70721693   0.00000000  -5.55082616   8.70745583" Properties=species:S:1:pos:R:3:forces:R:3 pbc="T T T" energy_dft=-310135.51746315 name=sample-013/aims.out
Al    -0.10073942   0.01314232   4.56849778   0.28559507  -0.90030342   0.35267513
Al     0.08620903   0.00500058   8.52201463  -0.53870875  -0.25328794  -0.45910621
Al    -0.04873671   0.00831663   1.85644973   1.26626074  -0.02987531   0.17139196
Al    -0.02543664   0.01935174  11.13577583   0.32432709  -0.39568799   0.69703734
O     -0.89511925   1.35272213   7.65504481  -0.34562287  -0.23861750   0.40255602
O      0.89435886  -1.37203336   5.37984074   0.43521776   0.11412171   0.59411427
O     -0.67838548  -1.49732104   7.52505532   0.55075921  -0.09629131   1.31151414
O      0.73009588   1.50400605   5.48225112  -0.41852957  -0.90442589  -0.82126981
O      1.71414087   0.10839588   7.69946681   0.52354824  -0.05438396  -0.87291712
O     -1.73033691  -0.08102900   5.48164199   0.80113709  -0.64036411  -1.16253704
Al     0.10161502  -2.73812855   8.80812357  -0.72588181   0.20157546   1.69879534
Al     0.04011432  -2.87888866  12.79512195  -1.39255607   1.21949926  -0.13050285
Al     0.10009667  -2.81036697   6.23820137  -1.36713493   0.32575050  -0.80352744
Al    -0.03247978  -2.84407552  15.47162022   0.18572887   0.84565914   0.55949687
O     -0.95374235  -1.44747220  11.94326522  -0.16159178   0.49934033   0.26786718
O      0.89382814  -4.11103520   9.70709505   0.78609452  -0.79951922   1.24397718
O     -0.80122166  -4.29025257  11.89896443   0.71346196   0.56458258   0.88847590
O      0.82597809  -1.27068043   9.81112875  -0.86018349  -0.10142973  -0.44025835
O      1.67182416  -2.69352607  12.00991369  -0.06496203  -0.00802259  -0.21402067
O     -1.77958625  -2.77179997   9.73762444   1.00952298  -0.89683583  -0.65843178
Al    -2.33250525   1.38488383   8.98498379  -0.28672689   0.49557599   0.23734683
Al    -2.48297500   1.37591648  12.81534950   0.08962517   0.83816898  -0.20810759
Al    -2.43027697   1.35101825   6.32711567   0.39427890   0.51940361  -0.29693986
Al    -2.32750480   1.35954822  15.51490441  -0.51262741   0.63544272  -0.74066126
O     -3.44331981   2.78660330  11.90103514   0.20564858  -0.18065075   0.98528612
O     -1.46060631  -0.00809396   9.87759240   0.50934862   0.66464325  -1.15412891
O     -3.24955001  -0.01619612  11.89348193   1.52233902  -1.08387651   0.71795017
O     -1.66316722   2.92522231   9.83913902   0.05650327  -0.41284317  -0.13569418
O     -0.78373135   1.59575300  11.99993792   0.41848117  -1.12818614  -0.54706670
O     -3.98616540   1.23592858   9.79720487  -1.08600770   0.42301095  -0.59256003
Al    -2.39071111  -1.40027830  13.26065057   0.07453080  -0.11922275   0.59832065
Al    -2.34538446  -1.37263070  17.17578808  -0.13807266  -0.70231241   0.98814247
Al    -2.47860869  -1.32236644  10.63949571  -0.24890916  -0.01388368  -0.21191523
Al    -2.47062906  -1.42625771  19.88005076   0.98015475   0.73489929  -1.04313961
O     -3.19876916  -0.02644867  16.33251425  -1.09666171   0.95691007  -0.93838261
O     -1.48955926  -2.80000608  14.17080787   0.22143216  -0.17605566  -0.28655873
O     -3.07504678  -2.89902667  16.31689153   0.10752990  -0.39136186   0.56953869
O     -1.70117964   0.16609427  14.09286980   0.57500092  -1.14685261   0.23051245
O     -0.69692353  -1.28357080  16.36466867  -0.04406481  -0.68939713  -1.18408720
O     -4.01972180  -1.50098690  14.12622016  -0.12023798  -0.21272654   0.22647210
Al     2.48678677   1.38674560   9.01146610  -0.38161668   0.54332636  -0.41051788
Al     2.31311515   1.43526437  12.82050681   0.74016907  -0.68374407   0.16158912
Al     2.36651023   1.34647281   6.34810474   0.84300435   0.90873179  -0.30066126
Al     2.40469208   1.31909739  15.46625947   1.04392844   0.17819026  -1.03267484
O      1.48862881   2.86954226  11.98294944  -0.44071564  -0.21694745   0.10965186
O      3.39850033  -0.01009093   9.82345859  -0.63688963   0.51185020  -0.33150984
O      1.58135185  -0.11317634  12.06582117   0.35725505  -0.19751281  -0.87806294
O      3.22437229   2.97879672   9.68297641  -1.45396806  -0.50711262   0.25515736
O      4.00054831   1.48404704  11.98657587  -0.13485820   0.68339777  -0.68914622
O      0.81326915   1.26248029   9.82410351  -0.77491743   0.58713823   0.66722981
Al     2.30756852  -1.43497737  13.31832492   1.70557949   1.07635085   0.54830482
Al     2.44117597  -1.33293182  17.14102392   0.44461971  -0.89656971  -0.25590939
Al     2.49058564  -1.37917642  10.68762931  -0.88594273  -0.74620245  -0.58725609
Al     2.39106699  -1.19801349  19.80488956  -0.88259739  -1.12571192   0.13450219
O      1.48398520  -0.09754202  16.16778510  -0.01982443   0.32324091   1.33657008
O      3.34732549  -2.73316299  14.23417195  -0.56057051  -0.39372415  -0.32002693
O      1.64243639  -2.81027518  16.31664242   0.30515406  -1.03378406   0.20048876
O      3.15592064   0.12808839  14.10831795  -0.32799604  -0.31647074   0.51299179
O      4.22770280  -1.29461495  16.31802925  -1.46394691   1.07044874   0.09299722
O      0.66664625  -1.56411524  14.09690509   0.16548218  -0.33928922   0.10528210
Al    -0.03988294   2.82452709  13.31125001   0.03238577  -0.50449806   1.25052414
Al     0.08554584   2.67103976  17.11835693  -0.57654209   1.25229199   0.25841198
Al     0.00932065   2.83189421  10.76112282  -0.18474202  -0.12922426  -1.45848662
Al    -0.06699620   2.79397024  19.81454402   0.39755737   0.04794447   0.58619796
O     -0.90598075   4.19631324  16.31915256  -0.49328266  -1.83518256   1.24725822
O      0.87251310   1.36028802  14.14492547   0.28763768   0.43229471  -0.32888514
O     -0.74430906   1.19402366  16.35067677   0.77271421   0.65425057  -0.49264134
O      0.74318124   4.26200923  14.24537784  -0.79649999   0.14946543  -1.09574024
O      1.69010692   2.79167668  16.23558195  -0.26746957   0.81267131   1.62899157
O     -1.68501859   2.66363413  14.17934865  -0.41493919   0.04514386   0.33790110
Al     0.02500749  -0.03975963  17.54566195  -0.48069773  -0.04328441   2.31575080
Al    -0.07781429   0.02182956  21.61311522   0.63107992   0.23628914  -0.42713586
Al     0.05113010  -0.10927750  14.91271143  -1.42871892   1.30589018  -0.15641058
Al     0.03472353  -0.05912568  24.25938713   0.32498236   0.95268899  -0.66797665
O     -0.96222689   1.38295625  20.73840691  -0.28397513   0.49171266  -0.59251877
O      0.85408438  -1.33233714  18.62405320   1.19341945   0.09425962  -1.19771613
O     -0.80975126  -1.49419124  20.80236747   0.20470694   0.26656814  -0.36621236
O      0.67920616   1.47936543  18.44006694   0.93259308  -0.06972312   0.19689659
O      1.58136881   0.23042315  20.67490302   0.38024238  -0.75186102   0.08860496
O     -1.61060006  -0.10662142  18.55575759  -0.49984772  -0.29547342  -0.28547098
80
Lattice="  4.81864005   2.78202246   8.72800017  -4.81864005   2.78202246   8.72800017   0.00000000  -5.56407542   8.72823965" Properties=species:S:1:pos:R:3:forces:R:3 pbc="T T T" energy_dft=-310135.99912939 name=sample-104/aims.out
Al    -0.02631313   0.04904189   4.59243085   1.08034492  -0.75764601   1.11017029
Al     0.00596780  -0.01365838   8.37746214  -0.66454941   0.05670178   1.07834766
Al    -0.06671088  -0.03862233   1.93986851   0.29823604  -0.05672423  -0.74926394
Al     0.01948142   0.03873541  11.03655142  -0.42194463  -0.11339556   0.61518394
O     -0.84921948   1.40551551   7.66436607  -1.71914806  -0.12619132  -0.78662253
O      0.98036168  -1.36523122   5.48838590  -1.10797565   0.02817465  -0.07247748
O     -0.80917122  -1.53415003   7.67703109  -0.05280082   0.13640444  -1.25360237
O      0.77742079   1.58654617   5.52305514  -1.06863200  -0.97554731  -1.27659165
O      1.64244058   0.08439946   7.71092267   1.61939207   0.24320498  -1.74272223
O     -1.66790393  -0.12034954   5.46467927  -0.07159647   0.03800572   0.21121544
Al     0.01155365  -2.77860032   9.02964565  -0.34143206  -0.09573157  -0.65139582
Al    -0.07376055  -2.78721705  12.82666516   0.68142389   0.20026601   0.69345798
Al    -0.07708804  -2.75772735   6.31562816   0.77318154   0.00485858   0.07136971
Al     0.04025316  -2.71240107  15.57145681  -0.08180966  -0.82461496  -0.25902095
O     -0.94882107  -1.43432381  12.00149697   0.02585544   1.00760997  -0.17069395
O      0.90590615  -4.22455829   9.80496508   0.21960430   0.24320521   0.56350696
O     -0.77282009  -4.35365348  12.05104390   0.26173182   0.85078154  -0.11418336
O      0.64929396  -1.21515614   9.70630426   1.68662753  -0.99741252   1.73167132
O      1.64531103  -2.69576096  12.03741722  -0.18478608  -0.18678738  -1.05129081
O     -1.61172565  -2.92393078   9.91406544  -0.27638109  -0.29180532  -0.78162364
Al    -2.45266229   1.31441661   9.00040390   1.35350500   1.06187708   0.15361101
Al    -2.35624955   1.39781179  12.86377447  -1.08687515  -0.12770397  -0.02694895
Al    -2.37125612   1.36974998   6.33842939   0.32863135   0.97844449  -0.13971602
Al    -2.42749583   1.34114245  15.53562124  -0.19451541   0.49781236   0.48617508
O     -3.41116201   2.79968691  11.98862816   0.43726134  -0.77147458   0.59849660
O     -1.48151394   0.00571475   9.84134641  -0.55861380  -0.27890445  -0.10677086
O     -3.14588975  -0.05926689  12.01375727  -0.24237029  -0.66333860  -0.43052417
O     -1.64281086   2.78825609   9.80135994  -0.62209691   1.48472493   0.81778516
O     -0.71057050   1.52868590  12.05487506   0.05009503  -0.18458268  -0.41894303
O     -4.10881000   1.31448329   9.75398008  -0.58542578  -0.74299325   0.50723780
Al    -2.38390220  -1.39116883  13.42231384   0.56920547   0.60656319  -0.92859908
Al    -2.43052670  -1.39102669  17.22003515   1.03822735  -0.29458885   0.35324161
Al    -2.40392493  -1.40294410  10.70010620   0.22264860   0.17549335  -0.09145774
Al    -2.47769507  -1.47161602  19.86507590   0.83613471   0.96652285   0.01860506
O     -3.33077199  -0.01519267  16.45610129  -0.42576616   0.54642828  -0.92957572
O     -1.47135934  -2.76100859  14.25654562  -0.07537322  -0.47932977  -0.44881690
O     -3.10068011  -2.86189991  16.37397325  -0.62728030  -1.14632662  -0.71907662
O     -1.66116058   0.11054348  14.22392811   0.26336856   0.22290270   0.21116163
O     -0.66473999  -1.25912511  16.44588281  -0.37641816   0.29838970  -0.45201269
O     -4.02444650  -1.40353389  14.15992160  -0.97793436  -1.32709096   0.41108142
Al     2.37406105   1.40473056   8.94764079  -0.68526284   0.08224841   0.29486341
Al     2.45850729   1.29740697  12.84228750  -1.14929202   0.41434671  -0.73759962
Al     2.42591115   1.36883216   6.25605198  -0.06750316   0.66032070   0.57881782
Al     2.32046764   1.46304587  15.43624526   1.88878611  -0.85415689   1.15627475
O      1.54448147   2.70157842  11.98003751  -0.94066356   0.76142489   0.58044392
O      3.31548455   0.00059112   9.78243998   0.88776678  -0.18417685   0.43324961
O      1.63741739  -0.10475246  11.88934914   1.08366154  -0.89034265   1.11341775
O      3.11483356   2.88766042   9.74369079   0.92968699   0.48264045   1.16731557
O      4.02798939   1.52166255  11.99856846   1.21791682  -0.73267218  -0.70617393
O      0.74945681   1.29097283   9.81694831  -0.59716741   0.47296271   0.41022329
Al     2.34293770  -1.45051959  13.24114567   0.19602436   0.29527923   1.40819126
Al     2.44922738  -1.31110654  17.17119916   0.38500942  -1.38912532   0.65276437
Al     2.45980149  -1.43569030  10.58559689  -1.39455237   0.56267031  -0.11823622
Al     2.44191438  -1.46518244  19.89125197  -0.82310493   0.66834451  -0.60775407
O      1.57159030   0.12014964  16.44410417  -1.20813313  -0.80682025  -0.80361734
O      3.35305216  -2.76681238  14.17882873   0.28697502  -0.03959622  -0.11876309
O      1.64091275  -2.85084792  16.43156599   0.65558171   0.15210202  -0.60223470
O      3.16104262   0.07666220  14.10622389  -0.87036866   0.29762228   0.17936560
O      4.09548834  -1.27570641  16.33361193   0.18255813  -0.04078706  -0.04391757
O      0.65824528  -1.46209494  14.18873535   1.06933291   0.27058130  -0.04312430
Al     0.02156758   2.79265537  13.31171627  -0.09301925  -0.05200390   0.71330957
Al    -0.00700862   2.84719310  17.16151861  -1.00566283  -0.99487730   0.65205426
Al    -0.02675687   2.85618932  10.77223930   0.63279165  -1.25630261  -2.30070475
Al    -0.04824103   2.71538715  19.86460152   0.92350859   0.96871984   0.20571478
O     -0.97510854   4.19192917  16.33538475   0.39821519  -0.25651014  -0.12812707
O      0.94345100   1.39839815  14.19260881  -0.19282373  -0.10698271  -0.03825925
O     -0.76760746   1.26538605  16.41931835   0.71677232   0.20676286  -0.51668562
O      0.74618132   4.28591537  14.18391486   0.49813937   0.25482718   0.00548291
O      1.63433531   2.88516236  16.34919612   0.47095060   0.95333743  -0.02242187
O     -1.68483983   2.65823775  14.20208066   0.69113619  -0.08688371  -0.40085501
Al     0.11177252  -0.03659056  17.67930406  -1.57546095   0.78358073   1.38981416
Al     0.08286989   0.08259119  21.55776991  -0.68824557  -1.14926949   0.15265645
Al     0.01709444   0.04041802  15.11221642  -0.62835923  -0.38866356  -1.19470162
Al     0.04005333  -0.04521251  24.20329595  -0.64280954   1.15338015   0.67740958
O     -0.92541028   1.35561710  20.76600172  -0.59283559   0.76593012  -1.20071972
O      0.93374789  -1.35517636  18.61018250   0.51980756  -0.26879763  -0.08098082
O     -0.74424441  -1.48414439  20.73846511   0.09154180  -0.14333028   0.29713291
O      0.74378260   1.49030099  18.54604164  -0.03199008   0.64235211   0.35549848
O      1.71003347   0.09842774  20.68822495  -0.42591264   0.10458049   1.09375047
O     -1.66110130  -0.14196011  18.55152600  -0.09474507  -0.51889757   0.11673753
80
Lattice="  4.82016348   2.78290201   8.73075957  -4.82016348   2.78290201   8.73075957   0.00000000  -5.56583453   8.73099912" Properties=species:S:1:pos:R:3:forces:R:3 pbc="T T T" energy_dft=-310135.66983270 name=sample-167/aims.out
Al     0.04934222  -0.04952077   4.62727229  -1.93085515   2.05251098  -0.73418235
Al    -0.11952408   0.06962976   8.46394583   1.12149974  -1.08231168   0.23305589
Al     0.07230884  -0.03973080   1.86891489  -0.49407447   0.89425948   1.23987947
Al    -0.08591161  -0.11300975  11.20088766   0.30773192   1.24637166  -1.46848894
O     -0.98159363   1.45566078   7.66143674   0.23043179   0.05276826  -0.36269471
O      0.90230405  -1.35220025   5.43299879   1.29670852  -1.14052316   0.54297817
O     -0.80602011  -1.49026268   7.67294345   0.75860411  -0.41932403  -0.58351813
O      0.76012725   1.45908376   5.50627932  -0.24729700   1.02016943  -0.51164777
O      1.67092372   0.20513608   7.62694407  -0.47243449  -1.08730734  -0.02784294
O     -1.65467527  -0.10300058   5.49638982   0.25806660   0.29478394  -0.28687995
Al     0.01775859  -2.86333889   8.95320909  -0.61559078   1.74503561  -0.09589149
Al     0.00449132  -2.80064008  12.84909134   0.01791336  -0.15723355   0.57203203
Al     0.01109689  -2.76183376   6.26005997  -0.48799352  -0.19372136   0.83213343
Al     0.07962394  -2.77656976  15.57277698  -1.60045485   0.28013724  -0.36517512
O     -1.01697989  -1.43220177  12.02149401   0.86035331  -0.19981501   0.46041757
O      1.01180293  -4.16337857   9.78324750  -0.85258151  -0.31999904   0.44559321
O     -0.73349526  -4.27934881  12.09649075  -0.24050317  -0.16400258  -1.13708356
O      0.68214884  -1.27298112   9.89902871   0.02004674  -0.94357055  -1.15129894
O      1.70727025  -2.66812640  12.03797094  -0.79760470   0.70629517   0.42162557
O     -1.66612187  -2.91856879   9.80977674   0.01616353  -1.05806321   0.12978477
Al    -2.47732126   1.35833872   8.97209945   0.85046866   0.00510545   0.16281007
Al    -2.44569711   1.38903521  12.89660780   0.88309733   0.33276056  -1.04737071
Al    -2.34874053   1.46851474   6.25906740   0.29185466  -0.74412773   0.49887002
Al    -2.45361885   1.42576535  15.58871783   0.71570768   0.41492247   0.21831531
O     -3.31076581   2.84858416  11.99919268  -0.20204910  -1.02621145   0.47128834
O     -1.52017551  -0.12594190   9.78163739  -0.46017812   1.09618077   0.67000125
O     -3.17089817  -0.19582775  11.97331306   1.03471903   0.94860284   1.32147178
O     -1.75224660   2.86594756   9.87953613   0.61760275   0.37192352  -0.36707146
O     -0.71463732   1.47672475  11.94565194  -1.02522479  -0.15059268   1.33035809
O     -4.11139029   1.21991346   9.85449375   0.67471249   0.22859829  -0.66496041
Al    -2.40058143  -1.36457444  13.31893665  -0.06828603  -0.56892614   1.18648604
Al    -2.36888831  -1.44944654  17.20677795  -0.92376148   0.56713067   0.25410610
Al    -2.41897299  -1.53942300  10.70229214  -0.31147387   0.96429665  -1.28307545
Al    -2.39219144  -1.30514623  19.94398838   0.57412387  -0.76899434  -0.93873299
O     -3.36638551   0.01406446  16.33848984   0.08344633   0.06510903   0.70053069
O     -1.40429657  -2.65826568  14.26977577   0.26940834  -0.56816112  -0.92624499
O     -3.11608508  -2.86316251  16.33482148  -0.67289409  -0.51987493   0.84510441
O     -1.70635285   0.15905644  14.19122034   0.06444243  -0.16598890  -0.58082219
O     -0.82117732  -1.24230541  16.36489410   1.71955454  -0.12530773  -0.15416498
O     -3.97879331  -1.50886637  14.28775581  -1.13239861   0.22377984  -1.27151559
Al     2.45006865   1.40625944   8.93203438  -1.49826789  -0.45959660   0.18143598
Al     2.45486953   1.40373204  12.79814634   0.06986461  -0.31958041   0.66491449
Al     2.46203166   1.43810484   6.16322199  -0.69362194  -1.35038035   1.68675154
Al     2.35678938   1.34841177  15.51178478   0.54448564   1.22741184   0.40051500
O      1.54557405   2.75859609  12.08131951  -1.39226574   0.59408373  -1.20836228
O      3.36616116   0.05474964   9.81378160  -0.13944684  -0.45152654   0.12141279
O      1.59970446  -0.07913839  11.92034803   1.11161490  -0.11980451   1.04357928
O      3.14857801   2.92169652   9.84768176   0.22576662  -0.67521996  -0.61015145
O      4.10921968   1.57726579  11.95419991   0.37444262  -1.02692784   0.19331320
O      0.62641254   1.28084099   9.73642056   1.25973753   0.33273966   0.40909783
Al     2.43492235  -1.37265462  13.30621327  -0.06120301   0.53433672   0.29414667
Al     2.38507270  -1.47012195  17.22632547   0.27047084   2.33804735  -0.20642826
Al     2.35313639  -1.29162116  10.59509173   0.50129716  -0.19730004   0.41159091
Al     2.39008225  -1.49108473  19.86954311   0.60159525   1.04404458   0.83583761
O      1.40470105   0.00330513  16.38943589   0.47698378  -0.25327765  -0.17323926
O      3.37209010  -2.79948178  14.16673864   0.63984190   1.15270238  -0.67158956
O      1.67720520  -2.82933210  16.32965592   0.45425520  -0.73820857   0.34738810
O      3.17048658   0.22368782  14.13302725  -0.14815364  -1.45448176   0.07182707
O      4.06167017  -1.25599826  16.32858935  -0.04229142  -0.51291187   0.22674698
O      0.85023396  -1.43494231  14.21202437  -1.00889428  -0.91817356  -0.47292205
Al     0.02062909   2.77337019  13.30899108   0.61491336   0.48130154   0.75338247
Al     0.03608321   2.73571062  17.24867992  -0.70785901   0.17621231  -0.68584850
Al    -0.05926506   2.69246331  10.71364227   0.25963001   0.74307107  -1.66799967
Al     0.05700676   2.71229712  19.93070868  -1.52164372   0.90617085  -0.61478850
O     -1.02429953   4.24684654  16.35376550   1.47331573  -0.79101884   0.31592608
O      0.94631452   1.43236209  14.16576882  -0.31245682  -0.86631982   0.30680034
O     -0.75101479   1.30573622  16.36279881  -0.11115541  -0.06303105   0.03048120
O      0.81340412   4.33844413  14.25637198  -1.54510801  -0.62002041  -1.34036693
O      1.65701747   2.95401682  16.37054844  -0.30481004  -0.70395567   0.08857093
O     -1.61864150   2.67472876  14.15517677  -0.64396439   0.09382146   0.00926654
Al    -0.02415009  -0.03234591  17.73284206   0.21260901   0.39830606  -0.49204392
Al     0.02757584   0.02151410  21.64030480   0.14868547  -0.17505366  -0.53139357
Al    -0.01016617  -0.00572575  14.96188197  -0.11849974   0.83903496   1.08624537
Al     0.00628395  -0.04506404  24.28448539   0.58811705   0.96983279   0.17566941
O     -0.97216992   1.48744974  20.83105018   0.86788249  -0.73406573  -0.37275697
O      0.91105512  -1.40586254  18.55719386   0.22725727  -0.85076157   0.26465105
O     -0.67768187  -1.48184440  20.69555685  -0.05167023  -0.32801137   0.89556767
O      0.72709800   1.45620197  18.58671674  -0.09028186   0.22504221   0.03047140
O      1.66454845   0.03658946  20.75959605   0.14258518   0.46701967   0.01677842
O     -1.61833048  -0.00557103  18.63653518  -0.80475967  -1.02023672  -0.39265693
80
Lattice="  4.82020055   2.78292341   8.73082671  -4.82020055   2.78292341   8.73082671   0.00000000  -5.56587733   8.73106626" Properties=species:S:1:pos:R:3:forces:R:3 pbc="T T T" energy_dft=-310135.53493230 name=sample-174/aims.out
Al    -0.04153630  -0.02462583   4.65358548   0.33046897   0.29383268  -0.56701554
Al     0.05432872   0.04811552   8.51083416  -0.23852038  -0.62879338  -0.73388073
Al    -0.06498745  -0.06905644   1.90566400   0.35872205   1.13705573   0.62473867
Al     0.11358379   0.03495657  11.14998230  -1.03306471   0.12578273   0.45538258
O     -0.91200097   1.34692496   7.60328506  -0.56651668   0.20842319   0.28477993
O      0.93334499  -1.36927350   5.42792289  -0.64627140  -0.53610873   0.77951800
O     -0.72070160  -1.46558985   7.64822858   0.64830247  -0.35511982  -0.00249197
O      0.76772474   1.43000829   5.53915224  -1.29742358   0.36404935  -0.54266469
O      1.75661530   0.14397348   7.69460210  -0.44157909  -0.73835472  -0.10287603
O     -1.75120694  -0.14760105   5.47755095   0.74221626   0.37209128  -0.16047832
Al     0.02023795  -2.76481416   9.01609535   0.30673569  -0.44607928  -0.54908451
Al    -0.10086575  -2.74016697  12.74003068   1.60635919  -0.00884198   1.21138338
Al    -0.01579532  -2.78014838   6.30069848   0.53757136   0.23126746  -0.14754636
Al    -0.03295856  -2.88086784  15.50089813   0.67627953   1.44870956  -0.12386003
O     -0.93158042  -1.33526577  11.95134230  -0.45720346  -0.09915653   0.04644038
O      0.98777577  -4.20545429   9.79431928  -0.73928371   0.14960355   0.05204368
O     -0.71087014  -4.22893086  12.00666045  -1.06425724  -0.93621763  -0.40541755
O      0.85000095  -1.32189529   9.85794928  -0.81234479   1.03099240  -0.25958640
O      1.61637473  -2.79892363  12.06963940   0.77899017   1.57854958  -0.39112625
O     -1.66096048  -2.79964281   9.74710396  -0.43419381  -0.29535503   1.34101110
Al    -2.34896147   1.44575485   8.96512990  -1.11392705  -0.19612291   0.23410395
Al    -2.47649381   1.43139662  12.79823790   0.48481800  -1.03070157   1.07680286
Al    -2.44236196   1.36885343   6.29438549  -0.46636589   0.02882904   0.03013115
Al    -2.35037982   1.34455404  15.56944305  -0.71854665  -0.00114528  -1.39683064
O     -3.39714995   2.73863324  11.96451498   0.00989397   0.80235276   0.05086797
O     -1.46246816   0.02471521   9.70559061   0.74171507  -0.17360535   1.49699610
O     -3.18380018  -0.09742336  12.01989066  -0.00681090  -0.48328413  -0.63608350
O     -1.63478277   2.89655191   9.88832819  -0.13886263   0.00732422  -1.04511483
O     -0.77502065   1.51042643  12.00134893   1.10691663  -0.00987125  -0.61232403
O     -4.10544349   1.31139632   9.85105812   1.00951507  -0.78370784  -0.80956193
Al    -2.44349601  -1.45196293  13.36169502  -0.11551990   2.02414989   0.81279937
Al    -2.38742984  -1.43645343  17.20047520  -0.46797285   0.94332546  -0.10953324
Al    -2.41505108  -1.22115121  10.71822807   0.55819284  -0.96391131  -1.53446531
Al    -2.45109557  -1.40955863  19.91126440  -0.09404225  -0.74201859  -0.10131945
O     -3.37663305  -0.02525825  16.33363641   0.41525395   0.30073120   0.70065875
O     -1.48883664  -2.79021549  14.16867190   0.12802194  -0.72901966  -0.32000018
O     -3.09011084  -2.85028774  16.31564530  -0.66137109  -1.13416685  -0.34396164
O     -1.74067533   0.09138780  14.14488808   1.12990059   0.07583996   0.83146540
O     -0.78450499  -1.32374845  16.29825652   0.64440978   0.78240605   0.78825592
O     -4.11290449  -1.49117008  14.19888979  -0.03574784  -0.88978440  -0.67151681
Al     2.44065624   1.39450262   9.00216948   0.17641438   0.74001295   0.34927285
Al     2.35434694   1.35882365  12.87675883   0.80639984   0.49593258  -0.34122757
Al     2.36821817   1.38943848   6.34177203   0.72924352  -0.42300158  -0.26426974
Al     2.47307426   1.36747507  15.55898452  -0.81914215   0.71651420   0.15792035
O      1.55941595   2.83560353  11.97569337  -1.45454200  -0.56572839   0.61799862
O      3.39010810   0.03589033   9.89553850  -0.83487138  -0.35338926  -0.79528892
O      1.62593129  -0.14404400  12.13302271   0.37168866  -0.37270290  -1.01174403
O      3.06219889   2.96822559   9.88397149   1.06280882  -0.41559844  -0.52489281
O      4.05114161   1.50345321  11.99626601  -0.32334139  -0.00958918   0.46371018
O      0.79550092   1.32093782   9.80219296  -0.86648287  -0.71286831   0.97918305
Al     2.36765342  -1.46787976  13.43383075  -0.15509039   0.94937601  -1.37369110
Al     2.44845427  -1.41246851  17.21916290  -0.27657361   0.46400552   0.12574540
Al     2.51907715  -1.42096941  10.60864778  -0.58082860  -0.07072930   1.02894479
Al     2.40724036  -1.27619909  19.91539055   0.67240810  -0.89810489  -0.69351656
O      1.50594012  -0.01959166  16.36606392  -0.23393047   0.48864219   0.20150184
O      3.29764670  -2.80711275  14.12343206   0.65922822  -0.93728699   1.22693079
O      1.55451448  -2.82438241  16.47230617   1.21513187  -1.42621000  -0.90486272
O      3.12327691   0.07620412  14.19795800   0.23477716   0.41152769   0.23604227
O      4.05969419  -1.31272517  16.32040665   0.15273378   0.30510305   0.33059192
O      0.76911685  -1.53771649  14.26820634  -0.81715240  -0.43135373  -0.67184880
Al    -0.06674237   2.74376617  13.32752975   0.11900781  -0.50928044   0.02449272
Al     0.03723098   2.78003926  17.20973798  -0.18365145   0.89846985   0.50809623
Al     0.05574443   2.86613459  10.67978673   0.05224137  -0.74081280  -0.31781794
Al    -0.01283958   2.72779845  19.84857165   0.33358098   1.69810418   0.96162732
O     -0.93521591   4.22430638  16.53624736   0.12346633   0.50472865  -2.24223726
O      0.92041068   1.41126173  14.20397427   0.07266856  -0.17291021   0.12996098
O     -0.68736400   1.31076760  16.37135287  -0.16544586  -0.82217813   0.06789311
O      0.58042585   4.25682807  14.12838403   1.93898763   0.55837122   1.29162179
O      1.64511778   2.98296137  16.42203158   0.87070453  -0.77716484  -1.36345385
O     -1.70823217   2.62346918  14.13909913   0.00681617   0.97369904   1.04737179
Al    -0.00128462  -0.02853495  17.69450334   0.67561315   0.49193770   0.01720543
Al     0.01399653  -0.06304564  21.50122754  -1.38300805   1.17545183   0.64090109
Al     0.12429820  -0.02453080  15.09631355  -1.90445004  -0.17033955  -1.44684557
Al    -0.02321582  -0.00182428  24.13831214  -0.06029281   0.19366897   1.67258242
O     -0.92289316   1.39398358  20.67957462  -0.45149343  -1.21653716   0.66764790
O      0.96676169  -1.32274071  18.54478405  -0.38571046   0.05996800   0.54889143
O     -0.69958340  -1.51053197  20.69695549  -0.81053397  -0.14022219  -0.27369284
O      0.76220748   1.56992948  18.52112846  -0.01257449  -0.93069598   0.21804448
O      1.63540983   0.14757983  20.78511083   1.17190273   0.11959219  -0.83822096
O     -1.63055272  -0.13628537  18.51071791  -0.39116538   0.12764861   0.29879269
80
Lattice="  4.82068928   2.78320558   8.73171195  -4.82068928   2.78320558   8.73171195   0.00000000  -5.56644167   8.73195153" Properties=species:S:1:pos:R:3:forces:R:3 pbc="T T T" energy_dft=-310136.24792235 name=sample-251/aims.out
Al    -0.03978260   0.07056771   4.58401076   0.14902234  -1.07982653   0.78486170
Al    -0.02898264   0.03399399   8.54359797   0.13678209  -0.40451577  -1.29288065
Al    -0.03421440   0.02701924   1.91409627   1.16508976  -1.49189134   0.27245105
Al    -0.08543911   0.04478021  11.12370696   0.32909330  -0.45812419   0.93057025
O     -0.95251651   1.42909910   7.68382634   0.69616790  -0.17707839  -0.30212988
O      0.88649378  -1.35142025   5.43950546   0.47389612  -0.71516036   0.29110963
O     -0.68908483  -1.46914294   7.72687735  -0.69038750  -0.36192714  -0.73346537
O      0.71610039   1.47421849   5.48857214   0.19437320   1.04912163  -0.35753347
O      1.72932672   0.10283317   7.62573880  -0.81564390   0.54494680   0.75724861
O     -1.67404974  -0.07130828   5.50930236   0.07483925  -0.87521520  -0.49826498
Al     0.05688870  -2.80284564   8.98525509  -1.02229877   0.58264864  -0.21862860
Al     0.02544726  -2.69102339  12.83381327  -0.86857742  -1.40669346   0.00218504
Al     0.03656279  -2.86732180   6.28795062  -0.86514829   1.39565367   0.00315253
Al     0.02105175  -2.72401909  15.50305674  -0.10004616  -1.16070990   0.54783430
O     -0.95807246  -1.36948118  12.06507834  -0.07821089   0.29182083  -0.54730701
O      0.96686874  -4.23587480   9.79918322  -0.29168431   0.87915240  -0.19583427
O     -0.76723482  -4.35102894  11.98381130   1.04779346   0.96006659   0.62099267
O      0.71595814  -1.25224553   9.83456857  -0.04854450   0.09688894   0.18257720
O      1.64492740  -2.62502049  11.96730775  -0.11332950  -0.43440005   0.19698075
O     -1.61916145  -2.95165839   9.87325357   0.36689527  -0.16214649  -0.43581580
Al    -2.38308851   1.43875617   8.93456431  -0.98751534  -0.75475562   0.62283773
Al    -2.49442284   1.40108481  12.85280933   0.52694230   0.23001254  -0.09386520
Al    -2.42029295   1.43102792   6.26015798   0.34318629  -0.84587627   0.77809924
Al    -2.38984791   1.36207624  15.59833184  -0.77922722   0.82786160  -0.91215987
O     -3.32234558   2.82492696  12.00360811  -0.74689635  -0.08233485  -0.03608356
O     -1.55439009   0.03418667   9.89415962   1.26748773  -0.18598498  -0.34986761
O     -3.16723642  -0.17280411  12.06099055  -0.01202361   0.07425187   0.31098105