10
Lattice="  2.41054903   1.39172079   4.36622619  -2.41054903   1.39172079   4.36622619   0.00000000  -2.78345684   4.36634598" Properties=species:S:1:pos:R:3:forces:R:3 pbc="T T T" energy_dft=-38766.99677460 name=sample-441/aims.out
Al    -0.04367871  -0.07544491   4.58710282   1.18854680   1.52418812   0.17138337
Al     0.01369011  -0.04548894   8.44904974  -0.07321169   0.66720837   0.43555110
Al     0.02005893   0.03457292   1.91680926  -0.30855838  -0.63799168   0.06048739
Al    -0.03284738   0.00717974  11.13292197   0.93099217   0.02391770   0.47829551
O     -0.91428702   1.45457332   7.73005288  -0.41819009  -0.46212919  -0.71953102
O      0.92586715  -1.38117456   5.45984671   0.49960010  -0.18278530   0.19401103
O     -0.79222173  -1.49942968   7.73518936   0.20580101  -0.27779002  -1.02749047
O      0.76079106   1.51550317   5.46707044  -0.40009503   0.06102602  -0.32627137
O      1.64977347   0.18960587   7.57168842   0.20764660  -1.01864013   0.32697209
O     -1.55778152  -0.14564013   5.52094571  -1.83253147   0.30299612   0.40659236
10
Lattice="  2.41075937   1.39184223   4.36660718  -2.41075937   1.39184223   4.36660718   0.00000000  -2.78369973   4.36672699" Properties=species:S:1:pos:R:3:forces:R:3 pbc="T T T" energy_dft=-38767.02751212 name=sample-312/aims.out
Al    -0.02782284  -0.04869225   4.63141178   0.61708005   0.77345855  -0.40429781
Al    -0.05686785  -0.04875031   8.48550595   1.05787126   0.36968515  -0.34284745
Al     0.02213993   0.06541301   1.95918511  -0.16187846  -1.23699802  -0.02842375
Al     0.05762406   0.07480062  11.12520805  -0.84769560  -1.08891655   0.79613395
O     -0.89365734   1.38582648   7.66616538  -0.93707317   0.28821301  -0.60607437
O      0.92156235  -1.38992640   5.44359708   0.48505735  -0.19557899   0.19444397
O     -0.77653492  -1.58200842   7.70825549   0.43000236   1.06552176  -0.50527474
O      0.78837052   1.51416835   5.44160300  -0.79106479   0.13351553  -0.21316256
O      1.60043451   0.13693256   7.57217022   0.90175241  -0.50944671   0.41766523
O     -1.63186647  -0.13722115   5.46562434  -0.75405142   0.40054628   0.69183754
10
Lattice="  2.41006731   1.39144267   4.36535364  -2.41006731   1.39144267   4.36535364   0.00000000  -2.78290060   4.36547341" Properties=species:S:1:pos:R:3:forces:R:3 pbc="T T T" energy_dft=-38767.00412952 name=sample-119/aims.out
Al    -0.02666936  -0.03083556   4.66016329  -0.05159086   1.09635112  -0.96958910
Al    -0.00215654  -0.03355801   8.51690622   0.21352840   0.86768701  -0.68816867
Al     0.02568735  -0.00990436   1.92115836  -0.24799361   0.29105410   0.04012366
Al    -0.01965938   0.04179572  11.20424023   0.71471572  -0.60393563  -0.19574506
O     -0.89641407   1.34919679   7.50757688  -0.21284164   0.20675652   0.68335270
O      0.90253286  -1.33690723   5.42382654   0.59544649  -1.09605971   1.22874198
O     -0.76202242  -1.48467006   7.75779287  -0.12205907  -0.68505666  -1.63387001
O      0.79440949   1.50229761   5.39549561  -0.28717731   0.19166959   0.55635794
O      1.72643069   0.14975004   7.63300514  -0.86302370  -0.12784613   0.09059110
O     -1.72648893  -0.12495095   5.38515541   0.26099558  -0.14062020   0.88820546
10
Lattice="  2.41054984   1.39172126   4.36622765  -2.41054984   1.39172126   4.36622765   0.00000000  -2.78345778   4.36634745" Properties=species:S:1:pos:R:3:forces:R:3 pbc="T T T" energy_dft=-38767.06914096 name=sample-394/aims.out
Al    -0.01776442   0.00117986   4.59289022   0.12688454  -0.46357491   0.14370379
Al     0.02885777  -0.01711805   8.50713521  -0.67380257   0.08081820  -0.25310318
Al     0.01868151   0.06761340   1.90782452  -0.20226035  -1.22787088   0.23997387
Al     0.03699573   0.04840231  11.19392217  -1.26929793  -0.84062128  -0.05562111
O     -0.95509442   1.41183076   7.68787658   0.22352617   0.04172527  -0.89487797
O      0.92698466  -1.39621437   5.40797643   0.20652756  -0.38320802   0.33497635
O     -0.79100094  -1.53847614   7.65302617   1.11003859   0.36713270   0.48229205
O      0.76516093   1.42069000   5.44162621  -0.52038090   1.42559965   0.04623039
O      1.61103256   0.12819161   7.57274874   0.46426074   0.03503680   0.79988729
O     -1.66968815  -0.19489498   5.52612729   0.53450415   0.96496245  -0.84346147
10
Lattice="  2.41060484   1.39175302   4.36632728  -2.41060484   1.39175302   4.36632728   0.00000000  -2.78352129   4.36644708" Properties=species:S:1:pos:R:3:forces:R:3 pbc="T T T" energy_dft=-38767.01187053 name=sample-376/aims.out
Al    -0.02910251  -0.03402155   4.59398342   0.09753022   0.37172324   0.34398314
Al    -0.01954761  -0.03607791   8.48501377   0.14075970   0.63477480  -0.00273344
Al     0.03965090   0.04017802   1.91600100  -0.54152283  -0.93519669   0.11130331
Al     0.08792367   0.00436790  11.17919666  -2.41139007   0.06369608  -0.38516504
O     -0.98960386   1.42664981   7.72373355   0.91317346  -0.06450035  -1.29463018
O      0.90022949  -1.38747200   5.43647973   0.79413493  -0.27037879   0.29586071
O     -0.81135992  -1.50032168   7.67125300   1.57643809  -0.45148683   0.52149962
O      0.77977676   1.52207853   5.38018428  -0.62562383  -0.05783948   0.90417720
O      1.62525676   0.13857085   7.58556678   0.12416739  -0.00639354   0.27315180
O     -1.63740150  -0.15650794   5.54057669  -0.06766707   0.71560156  -0.76744711
10
Lattice="  2.41078600   1.39185760   4.36665540  -2.41078600   1.39185760   4.36665540   0.00000000  -2.78373047   4.36677521" Properties=species:S:1:pos:R:3:forces:R:3 pbc="T T T" energy_dft=-38766.95963578 name=sample-282/aims.out
Al    -0.01433645   0.04381631   4.65544661   0.53606799  -0.80191809  -0.41488483
Al     0.02458515   0.09464925   8.49546600  -0.59202241  -1.72710554  -0.39186717
Al     0.00561194   0.03015650   1.95976318  -0.06830672  -0.68120495  -0.63198257
Al    -0.00261717  -0.01855852  11.21551393   0.35742433  -0.24979721  -0.69241915
O     -0.97951809   1.39096674   7.63653665   0.48911697  -0.20426568  -0.13735110
O      0.95424576  -1.44462118   5.36711029  -0.37470446   0.23302179   0.50527615
O     -0.66464464  -1.54364846   7.64533715  -1.27358498   0.70860761  -0.31670367
O      0.75150733   1.42380259   5.49777599   0.03857726   1.66828881   0.21555336
O      1.59868309   0.05171730   7.54390860   0.75591808   0.83853193   0.87433864
O     -1.68260792  -0.13138912   5.39706666   0.13151394   0.21584132   0.99004035
10
Lattice="  2.41059205   1.39174563   4.36630411  -2.41059205   1.39174563   4.36630411   0.00000000  -2.78350652   4.36642391" Properties=species:S:1:pos:R:3:forces:R:3 pbc="T T T" energy_dft=-38766.98396426 name=sample-446/aims.out
Al     0.00607268  -0.01327986   4.61457139  -0.62897007   0.91299724   0.65894524
Al    -0.05178228   0.06670306   8.49467049   1.01983242  -1.35250593   0.34531435
Al     0.01377659  -0.04086863   1.98942111  -0.68573764   0.78287544  -1.29514912
Al     0.00600170  -0.05530434  11.20645429   0.50855512   1.23595032  -0.83087951
O     -0.90399849   1.34574245   7.53060684  -0.52410680   0.10840119   1.19712375
O      0.89199508  -1.39118481   5.41523554   0.92769053  -0.01905371   0.48910919
O     -0.65294275  -1.49500423   7.57705698  -0.74915247   0.09134673   0.64996508
O      0.73189636   1.53760117   5.46166199   0.02235871  -0.50217441  -0.10221896
O      1.69663543   0.12280315   7.71962871  -0.04729118  -0.43612470  -1.09252500
O     -1.71985374  -0.04795954   5.41236657   0.15682138  -0.82171216  -0.01968502
10
Lattice="  2.40762994   1.39003547   4.36093884  -2.40762994   1.39003547   4.36093884   0.00000000  -2.78008617   4.36105849" Properties=species:S:1:pos:R:3:forces:R:3 pbc="T T T" energy_dft=-38767.04836205 name=sample-050/aims.out
Al    -0.02027562   0.01932373   4.54278195   0.30637260  -0.28285507   0.88963866
Al    -0.00681412  -0.03992838   8.49589703  -0.12760685   0.86069250  -0.29694370
Al     0.02434073  -0.04710858   1.87058917  -0.81331194   1.64876347   0.71282030
Al    -0.01624772  -0.00432725  11.15093830   0.36655952   0.05311646   0.52364731
O     -0.94565681   1.46127464   7.72316206   0.63820991  -0.68671110  -0.75819797
O      0.95307924  -1.39358954   5.38700427  -0.38032337  -0.03199121   0.83898473
O     -0.67890613  -1.50001611   7.63257478  -1.19880356  -0.23182451  -0.79167545
O      0.67021488   1.50338905   5.47826034   1.05653115   0.12965439   0.37715603
O      1.64404116   0.12715479   7.67414174   0.40589428  -0.19607261  -0.73836806
O     -1.61073526  -0.07681717   5.53186570  -0.25352174  -1.26277232  -0.75706186
10
Lattice="  2.41050950   1.39169797   4.36615458  -2.41050950   1.39169797   4.36615458   0.00000000  -2.78341119   4.36627437" Properties=species:S:1:pos:R:3:forces:R:3 pbc="T T T" energy_dft=-38767.05100233 name=sample-176/aims.out
Al     0.04403450  -0.01395153   4.59093068  -0.56271319   0.09053143   0.22681356
Al     0.00198562  -0.07326779   8.49157727   0.40747388   1.01048940  -0.15618443
Al    -0.04434404   0.06022494   1.90471871   0.76056161  -1.23254520   0.34478500
Al    -0.05750544   0.08475301  11.15562690   0.98663909  -1.22714531   0.42916567
O     -0.86567439   1.33770958   7.65244180  -0.89654622   0.77240969  -0.43348725
O      0.91473683  -1.36563056   5.50549194   0.45820658  -0.24526381  -0.24865528
O     -0.71488340  -1.56683560   7.64423264  -0.26647394   0.99488913  -0.01738574
O      0.73517192   1.49417401   5.47108888  -0.51885394   0.07851972  -0.46624130
O      1.71266066   0.13763733   7.70133021  -0.26302895  -0.71125001  -0.65632070
O     -1.68785810  -0.13455914   5.41276221  -0.10526493   0.46936495   0.97751048
10
Lattice="  2.41060424   1.39175267   4.36632619  -2.41060424   1.39175267   4.36632619   0.00000000  -2.78352060   4.36644599" Properties=species:S:1:pos:R:3:forces:R:3 pbc="T T T" energy_dft=-38767.02227331 name=sample-352/aims.out
Al     0.04667317  -0.04104227   4.57050148  -1.03511765   0.62373827   1.18619160
Al     0.04624189  -0.00937027   8.45797761  -0.41533129   0.30232719   0.52107078
Al     0.00144912   0.00708484   1.90562076  -0.27958652  -0.06218572  -0.00416899
Al     0.01210239  -0.02850041  11.17972666  -0.68404687   0.43907666  -0.31727056
O     -1.00597062   1.33054439   7.66076023   1.32870069   0.94265444  -0.56538762
O      0.89136432  -1.32034807   5.58866767   0.55858948  -0.51210380  -0.71311582
O     -0.77113227  -1.42752519   7.62892283   0.44360783  -1.36043195   0.19718647
O      0.68255571   1.51898483   5.45768519   0.54488971  -0.09365108   0.24630526
O      1.73655965   0.08709011   7.69307959  -0.88861175   0.32212100  -0.29257229
O     -1.71292749  -0.06770868   5.41046598   0.42690636  -0.60154501  -0.25823882
